<?xml version="1.0"?>
<VTKFile type="ImageData" version="1.0" byte_order="LittleEndian">
<ImageData WholeExtent="0 9 0 9 0 9" Origin="0.000000 0.000000 0.000000" Spacing="1.000000 1.000000 1.000000">
<Piece Extent="0 9 0 9 0 9.000000">
<PointData Scalars="Intensity">
<DataArray Name="Intensity" type="Float32" format="ascii">
0.596647 0.901991 0.702066 0.377455 0.734956 0.954103 0.542813 0.540106 0.311110 0.071235 0.181980 0.092989 0.463489 0.009333 0.915026 0.642742 0.001419 0.030385 0.208470 0.454966 0.127266 0.008648 0.727080 0.354116 0.780446 0.436657 0.436555 0.049213 0.049632 0.091100 0.594037 0.241084 0.841369 0.857213 0.963612 0.488900 0.220310 0.226209 0.536788 0.762110 0.347567 0.461232 0.639324 0.917336 0.161573 0.715635 0.577739 0.433299 0.884243 0.393052 0.178975 0.633334 0.624001 0.327942 0.802965 0.999478 0.980978 0.127037 0.232240 0.023632 0.607433 0.110809 0.407460 0.884077 0.548133 0.369003 0.208346 0.440943 0.956196 0.124026 0.470763 0.856896 0.043390 0.691625 0.978985 0.283268 0.133780 0.685280 0.909455 0.610869 0.899983 0.193434 0.754425 0.346261 0.418625 0.155720 0.819001 0.624924 0.738560 0.805112 0.067223 0.950790 0.497577 0.755146 0.742405 0.831130 0.156502 0.457309 0.618100 0.932183 0.835088 0.895424 0.582519 0.582747 0.854926 0.034866 0.885420 0.407731 0.036382 0.746148 0.154829 0.143908 0.605959 0.254481 0.324154 0.401791 0.406373 0.386191 0.609802 0.166891 0.188092 0.094629 0.323186 0.769597 0.234118 0.740365 0.692818 0.824078 0.827978 0.293368 0.309369 0.523030 0.325299 0.831843 0.810295 0.556998 0.262964 0.680566 0.233653 0.456425 0.384567 0.538601 0.991704 0.755220 0.980455 0.234783 0.528559 0.051436 0.756875 0.601980 0.857169 0.988277 0.929484 0.409515 0.000341 0.540878 0.207731 0.219284 0.325806 0.095949 0.747534 0.748509 0.543299 0.338132 0.832334 0.552572 0.957543 0.892833 0.356504 0.546402 0.346682 0.622803 0.796625 0.745875 0.125536 0.822394 0.025151 0.414429 0.731407 0.781374 0.367286 0.744868 0.892267 0.242603 0.129597 0.225068 0.350014 0.287085 0.927488 0.051314 0.592667 0.162899 0.838406 0.167561 0.502201 0.999329 0.355407 0.047078 0.213661 0.397839 0.333668 0.229603 0.936120 0.683189 0.962114 0.437973 0.940337 0.005834 0.610307 0.801076 0.232982 0.932469 0.763263 0.826450 0.573464 0.792582 0.329041 0.223462 0.312386 0.584523 0.829914 0.290462 0.402554 0.862057 0.614740 0.991188 0.203699 0.827209 0.675862 0.248949 0.475786 0.399075 0.599438 0.800523 0.105069 0.821442 0.841086 0.354506 0.430069 0.572239 0.700825 0.742470 0.757884 0.389129 0.429302 0.956345 0.572971 0.849722 0.276345 0.622324 0.588362 0.963468 0.085903 0.500499 0.521590 0.090166 0.904666 0.884389 0.438990 0.781723 0.148465 0.619816 0.260624 0.445656 0.844000 0.196205 0.303852 0.483295 0.337812 0.798486 0.987488 0.159048 0.236880 0.702237 0.375472 0.973705 0.972306 0.643698 0.860099 0.401883 0.631931 0.985237 0.559477 0.933592 0.720343 0.484039 0.639031 0.887637 0.198737 0.395366 0.992175 0.402352 0.658856 0.901348 0.995382 0.653163 0.108436 0.036114 0.618091 0.567144 0.961965 0.746105 0.662516 0.523313 0.259894 0.961994 0.540204 0.030270 0.696314 0.519716 0.059031 0.890036 0.330202 0.229701 0.113949 0.310923 0.228432 0.651997 0.066160 0.275431 0.281820 0.880066 0.444330 0.755914 0.603296 0.783266 0.113931 0.978564 0.848597 0.050646 0.466202 0.325653 0.630205 0.230299 0.579885 0.603156 0.599879 0.448428 0.035423 0.513815 0.407730 0.108046 0.459876 0.450883 0.551140 0.805404 0.700850 0.872236 0.052192 0.219681 0.459642 0.958534 0.790045 0.451875 0.333428 0.059095 0.740905 0.506795 0.199925 0.427194 0.168690 0.751695 0.368351 0.941818 0.017173 0.829056 0.626591 0.538747 0.650508 0.726630 0.094489 0.877574 0.014362 0.294303 0.179915 0.926294 0.068180 0.581093 0.637151 0.651269 0.864622 0.055953 0.816855 0.528922 0.694351 0.212405 0.543280 0.702520 0.956435 0.444542 0.085398 0.057340 0.629450 0.796179 0.691191 0.345308 0.946817 0.520190 0.953813 0.073596 0.207032 0.775028 0.914188 0.782551 0.295534 0.151846 0.847911 0.784855 0.270832 0.227811 0.321023 0.829562 0.822182 0.570683 0.571830 0.286018 0.699134 0.796258 0.441589 0.446216 0.465662 0.279039 0.675375 0.903665 0.908526 0.747197 0.260512 0.689638 0.131831 0.123501 0.190903 0.145732 0.585044 0.073362 0.822326 0.722903 0.925858 0.492639 0.654883 0.890123 0.538526 0.282205 0.975958 0.036426 0.326245 0.973014 0.365033 0.309150 0.120912 0.915766 0.135478 0.332118 0.897480 0.499649 0.615288 0.583133 0.698254 0.029332 0.527883 0.032073 0.827142 0.339986 0.846711 0.246070 0.581491 0.937677 0.047787 0.053978 0.020618 0.681479 0.598629 0.114030 0.796245 0.617851 0.070214 0.069279 0.136007 0.788891 0.092398 0.237869 0.243648 0.104822 0.858353 0.698200 0.733742 0.650531 0.516271 0.326388 0.661776 0.117565 0.147817 0.019765 0.964292 0.970373 0.123861 0.467410 0.656694 0.290186 0.754537 0.558118 0.427793 0.267194 0.753736 0.898376 0.728444 0.406830 0.938316 0.255427 0.533163 0.954755 0.267748 0.250085 0.927673 0.068582 0.299400 0.591584 0.203299 0.635883 0.798370 0.501701 0.650812 0.795955 0.233374 0.600839 0.112462 0.515766 0.837841 0.920790 0.498228 0.277611 0.652520 0.917299 0.509839 0.974191 0.197279 0.111185 0.297354 0.396419 0.420756 0.311475 0.693843 0.091872 0.402089 0.295181 0.306497 0.105561 0.593828 0.282728 0.155222 0.000659 0.283595 0.550811 0.870902 0.042253 0.904722 0.130974 0.833729 0.800468 0.917880 0.137304 0.504732 0.404958 0.173572 0.575184 0.606218 0.214446 0.519932 0.989186 0.489915 0.694873 0.411422 0.034777 0.292832 0.801442 0.346502 0.083316 0.511106 0.366833 0.739480 0.524740 0.804521 0.816911 0.189471 0.123693 0.820996 0.637898 0.016120 0.895955 0.515375 0.544522 0.606442 0.760436 0.855347 0.382868 0.084649 0.733873 0.331989 0.839750 0.371723 0.828215 0.176519 0.129520 0.879884 0.044079 0.686720 0.733773 0.437172 0.379839 0.979657 0.398993 0.440187 0.156808 0.326034 0.314062 0.894501 0.247024 0.310679 0.408869 0.708011 0.143638 0.871322 0.083156 0.461738 0.030389 0.753201 0.700043 0.214512 0.679905 0.557293 0.850679 0.558565 0.901774 0.419518 0.358128 0.488988 0.255962 0.929169 0.466757 0.254008 0.431218 0.702530 0.402330 0.181840 0.856251 0.584201 0.373579 0.221695 0.218994 0.522232 0.433423 0.741304 0.070450 0.847333 0.679880 0.136652 0.858402 0.199834 0.607340 0.543045 0.162325 0.005653 0.771485 0.764788 0.421069 0.056813 0.585747 0.174155 0.728611 0.534291 0.253064 0.917057 0.758195 0.887031 0.068798 0.183528 0.737073 0.696715 0.776993 0.501903 0.425497 0.611237 0.855772 0.670797 0.523592 0.298815 0.703969 0.381611 0.567685 0.887861 0.842949 0.898799 0.939003 0.815435 0.001358 0.003091 0.087469 0.260727 0.022799 0.424085 0.341065 0.541354 0.926169 0.298499 0.338085 0.859480 0.340478 0.138120 0.507799 0.856656 0.384314 0.695691 0.627904 0.450388 0.473618 0.949706 0.083498 0.279829 0.447007 0.587571 0.877634 0.469101 0.437418 0.746185 0.467910 0.860827 0.466512 0.498104 0.487431 0.229469 0.085552 0.067383 0.888391 0.233168 0.861596 0.711735 0.872813 0.938002 0.139689 0.393900 0.980563 0.644794 0.896410 0.482230 0.014093 0.622880 0.231095 0.527434 0.724992 0.607416 0.588366 0.433435 0.244173 0.428960 0.010177 0.608821 0.957975 0.095447 0.035591 0.886235 0.246941 0.008915 0.814920 0.140499 0.879866 0.095377 0.352560 0.593421 0.585182 0.667682 0.648027 0.433369 0.139759 0.751930 0.241787 0.650459 0.857374 0.084370 0.972089 0.031460 0.835405 0.835713 0.049858 0.545886 0.943170 0.321473 0.806467 0.601399 0.789620 0.799185 0.049565 0.283199 0.653457 0.489655 0.972852 0.748490 0.567841 0.298964 0.256110 0.886564 0.446801 0.815987 0.098337 0.859593 0.027629 0.899156 0.899936 0.524106 0.120200 0.177794 0.706108 0.831360 0.034834 0.757839 0.957112 0.342871 0.638244 0.343006 0.216471 0.786201 0.723090 0.278839 0.582431 0.421006 0.092069 0.024027 0.491146 0.278267 0.339757 0.287350 0.170903 0.399263 0.697650 0.203676 0.666326 0.443066 0.433295 0.175239 0.193202 0.616421 0.269011 0.559678 0.944784 0.714472 0.679220 0.959381 0.775334 0.607727 0.948002 0.059642 0.268712 0.986680 0.772207 0.475354 0.680900 0.416935 0.380149 0.213270 0.382938 0.029668 0.472321 0.333373 0.975845 0.555444 0.846304 0.408063 0.462018 0.826307 0.991203 0.523948 0.925437 0.739022 0.567430 0.968778 0.824499 0.959609 0.646346 0.379573 0.476575 0.911890 0.014854 0.156694 0.471568 0.542992 0.059691 0.658030 0.889635 0.109633 0.437773 0.280230 0.985246 0.608759 0.253749 0.132615 0.545005 0.827804 0.837006 0.833349 0.203715 0.544418 0.874943 0.121000 0.856351 0.899776 0.217865 0.076979 0.474215 0.835027 0.469394 0.413770 0.502746 0.125440 0.132285 0.870475 0.602950 0.265302 0.864803 0.058109 0.457754 0.722210 0.338999 0.401220 0.526980 0.894236 0.778361 0.069368 0.278785 0.379370 0.864673 0.419960 0.239877 0.597655 0.479404 0.898548 0.934709 0.817887 0.708909 0.743221 0.899710 0.065240 0.335911 0.004335 0.828096 0.507435 0.366162 0.226640 0.534832 0.289485 0.068371 0.084971 0.068339 0.409816 0.123381 0.443017 0.898940 0.353639 0.120178 0.569111 0.875033 0.348575 0.041921 0.142340 0.076593 0.740527 0.456525 0.668249 0.699246 0.571357 0.628693 0.877764 0.662352 0.875414 0.467517 0.141336 0.068134 0.714242 0.307986 0.671164 0.652421 0.531049 0.715107 0.504811 0.487999 0.497838 0.935976 0.389282 0.117145 0.240424 0.684908 0.839254 0.970145 0.215170 0.760343 0.584103 0.402952 0.510040 0.495644 0.651368 0.743706 0.301953 0.089612 
</DataArray>
</PointData>
<CellData>
</CellData>
</Piece>
</ImageData>
</VTKFile>
